8
Lattice="4.044904723682268 0.30429663610542174 0.11273910187719256 1.4388590397240664 3.885299976898546 0.12097588942936986 0.1517911896862615 0.16898609255040623 4.359533567535131" Properties=species:S:1:pos:R:3:forces:R:3 name=cabal-in-out pressure=0.0 energy=-46.12483596801758 spacegroup=n/a times_found=1 stress="0.04763481020927429 0.004398472607135773 -0.0015483380993828177 0.004398472607135773 0.07514510303735733 -0.012395897880196571 -0.0015483380993828177 -0.012395897880196571 0.07435649633407593" free_energy=-46.12483596801758 pbc="T T T"
B       -1.76252768      -1.86648386      -0.01206417      -0.44578457      -1.20256054      -2.29640317
B       -0.33003305       1.12758083      -1.87976624      -0.79515183       0.60327536       2.03561544
B       -0.80506147      -1.62410060       1.32826360      -0.09933759       2.12753987      -0.45186773
B       -0.38077109      -1.93724882      -1.20419027       0.95975208       0.33652499      -1.77075100
B       -0.65183945       0.43943511       0.66012364      -0.48541760       0.48497313      -0.21618140
B        1.09147337      -0.95731900      -1.23052473       1.11176348       0.12047750      -0.23648509
B       -0.11427523      -0.25823607       1.98543649       1.64581048      -2.68299508       1.83531308
B       -1.70638095       0.03283306      -1.69684433      -1.89163494       0.21276414       1.10076022
8
Lattice="4.469976871166628 -0.04329548042564877 0.19083952593942521 -2.2600068474247204 3.498604514584303 -0.3081599810735991 -0.9538568400419515 -0.9801002817865886 4.2089881540158265" Properties=species:S:1:pos:R:3:forces:R:3 name=cabal-in-out pressure=0.0 energy=-47.2319450378418 spacegroup=n/a times_found=1 stress="-0.057053662836551666 -0.000661797821521759 -0.018736857920885086 -0.000661797821521759 -0.01760921999812126 0.09781641513109207 -0.018736857920885086 0.09781641513109207 -0.06094113737344742" free_energy=-47.2319450378418 pbc="T T T"
B       -1.49962871       0.28706189      -1.97545968      -0.85445255      -0.02881068      -0.40106487
B        1.41310185       0.91078120       0.50802624      -0.75412524      -0.22144324      -1.46896791
B       -1.78426937      -0.21259265       0.62651169      -0.43632981      -0.06765189       0.28144282
B       -0.10512853       1.24308559      -2.15781478       1.47267842      -0.73343182       0.05372660
B       -1.55883901       1.48108624      -0.36118161      -0.76000011      -3.43304443      -1.81437373
B        0.20605971       1.67693478      -0.62066839       0.34272769       1.55318117       2.41945219
B        1.58403711       0.97305984      -1.22314740      -0.99772263      -0.21357805      -1.02729964
B        1.01556170      -0.82092652       0.86766310       1.98722434       3.14477873       1.95708418
8
Lattice="3.115333549445719 -0.5964144938068316 -0.3602401192365428 0.06456159987660288 4.095363062737835 -0.6876738885750173 -0.8244774656037783 0.5317641712006284 5.446589881053844" Properties=species:S:1:pos:R:3:forces:R:3 name=cabal-in-out pressure=0.0 energy=-46.53145980834961 spacegroup=n/a times_found=1 stress="-0.00952325388789177 -0.01569213904440403 0.05967267230153084 -0.01569213904440403 -0.07637379318475723 0.030961880460381508 0.05967267230153084 0.030961880460381508 0.008501999080181122" free_energy=-46.53145980834961 pbc="T T T"
B       -0.12202450      -0.28618572       0.97065975       4.59986973      -0.17599148       2.30753350
B       -1.18256964      -0.17302246      -1.17016047      -0.47342792      -1.02039409      -1.21753669
B       -1.38995486      -1.49066906       1.46966140       0.24293275       0.72495204      -1.06268871
B       -1.49077240      -0.27035565       0.34049481      -3.81250286       0.36798102       2.93484926
B       -0.69050609       2.00189896      -1.71273429       1.15222514       0.46145713      -1.36344194
B        1.21204384       0.38833278      -2.47787268      -0.45071432      -1.28976858      -1.49062550
B        0.89981308      -2.18025256      -0.89809963      -0.83133364       0.61882675       0.86407655
B       -1.60252422       1.43399364       1.99491382      -0.42704675       0.31293738      -0.97216624
8
Lattice="4.4693826116283875 -0.04323255040627025 0.19093241400087038 -2.2596517868512813 3.4988816458161454 -0.3055666326057672 -0.9536202978351231 -0.977340330229281 4.2089174752939815" Properties=species:S:1:pos:R:3:forces:R:3 name=cabal-in-out pressure=0.0 energy=-47.22026824951172 spacegroup=n/a times_found=1 stress="-0.02187507413327694 0.00574872549623251 -0.01518455520272255 0.00574872549623251 0.006573491729795933 0.08150401711463928 -0.01518455520272255 0.08150401711463928 -0.04630656912922859" free_energy=-47.22026824951172 pbc="T T T"
B       -1.49922431       0.28576279      -1.97548405      -0.86505663      -0.03304112      -0.40080652
B        1.41319306       0.91122788       0.50920815      -0.75735879      -0.21690558      -1.47095394
B       -1.78389869      -0.21214972       0.62635566      -0.43405187      -0.07240636       0.28137648
B       -0.10558331       1.24192457      -2.15728791       1.47382557      -0.73402655       0.05823866
B       -1.55837392       1.48165915      -0.35976349      -0.75998282      -3.43964958      -1.81899095
B        0.20589611       1.67649280      -0.62002763       0.34451741       1.55516982       2.41749215
B        1.58411203       0.97233941      -1.22230706      -0.99667078      -0.21275270      -1.02297366
B        1.01483893      -0.82099538       0.86675758       1.99477828       3.15361285       1.95661831
8
Lattice="3.063393299201636 -0.4523437318610225 -0.19386782400086858 0.27250378997349883 3.740491522778584 -0.5466535600704348 -0.41251128553766314 0.533881412721838 6.012653774998089" Properties=species:S:1:pos:R:3:forces:R:3 name=cabal-in-out pressure=0.0 energy=-45.272029876708984 spacegroup=n/a times_found=1 stress="-5.411431312561035 3.5302107334136963 1.694933295249939 3.5302107334136963 -3.8909339904785156 0.8847881555557251 1.694933295249939 0.8847881555557251 -3.6730892658233643" free_energy=-45.272029876708984 pbc="T T T"
B       -0.13540915      -0.22337138       1.02702224       3.42679143      -0.61299485       1.80028522
B       -1.27619384      -0.21251704      -1.38188597      -0.55863762      -0.16280961      -0.22469792
B       -1.38955044      -1.39763626       1.46449424       0.14912291       0.98612976       0.17686206
B       -1.42794662      -0.30043697       0.21711120      -3.86038184      -0.43549392       0.52206540
B       -0.72573631       1.79354383      -1.82906118       6.55521488      -2.35895491      -2.39518332
B        1.05870568       0.37229745      -2.62557139       0.59758508      -0.22578895      -1.34871769
B        0.74111980      -1.99669905      -1.05573231      -5.93275404       2.63831043       1.86781216
B       -1.36618746       1.27976586       2.17471897      -0.37694210       0.17160268      -0.39842576
