8
Lattice="4.044904723682268 0.30429663610542174 0.11273910187719256 1.4388590397240664 3.885299976898546 0.12097588942936986 0.1517911896862615 0.16898609255040623 4.359533567535131" Properties=species:S:1:pos:R:3:forces:R:3:magmoms:R:1 name=cabal-in-out pressure=0.0 energy=-43.95889299 spacegroup=n/a times_found=1 stress="-0.030322040291501928 -0.006153264079635234 -0.0005970610964990559 -0.006153264079635234 -0.013231495301320029 0.027350569831757716 -0.0005970610964990559 0.027350569831757716 -0.008378623209029915" free_energy=-43.95907215 dipole="_JSON [[0.0, 0.0, 0.0]]" magmom=0.0 pbc="T T T"
B       -1.76252768      -1.86648386      -0.01206417       3.98559078      -0.11076539       2.54987058       0.00000000
B       -0.33003305       1.12758083      -1.87976624      -0.43865100      -0.08497415      -0.47456520       0.00000000
B       -0.80506147      -1.62410060       1.32826360      -0.26456912       0.65198366       0.73847239       0.00000000
B       -0.38077109      -1.93724882      -1.20419027      -4.68818429      -0.54670902       0.14191670       0.00000000
B       -0.65183945       0.43943511       0.66012364       6.75851656      -1.80877773      -2.71061948       0.00000000
B        1.09147337      -0.95731900      -1.23052473       0.63167720      -0.90091917      -1.47629347       0.00000000
B       -0.11427523      -0.25823607       1.98543649      -6.19569862       2.64694621       1.83228296       0.00000000
B       -1.70638095       0.03283306      -1.69684433       0.21131849       0.15321559      -0.60106449       0.00000000
8
Lattice="4.469976871166628 -0.04329548042564877 0.19083952593942521 -2.2600068474247204 3.498604514584303 -0.3081599810735991 -0.9538568400419515 -0.9801002817865886 4.2089881540158265" Properties=species:S:1:pos:R:3:forces:R:3:magmoms:R:1 name=cabal-in-out pressure=0.0 energy=-43.95889299 spacegroup=n/a times_found=1 stress="-0.030322040291501928 -0.006153264079635234 -0.0005970610964990559 -0.006153264079635234 -0.013231495301320029 0.027350569831757716 -0.0005970610964990559 0.027350569831757716 -0.008378623209029915" free_energy=-43.95907215 dipole="_JSON [[0.0, 0.0, 0.0]]" magmom=0.0 pbc="T T T"
B       -1.49962871       0.28706189      -1.97545968       3.98559078      -0.11076539       2.54987058       0.00000000
B        1.41310185       0.91078120       0.50802624      -0.43865100      -0.08497415      -0.47456520       0.00000000
B       -1.78426937      -0.21259265       0.62651169      -0.26456912       0.65198366       0.73847239       0.00000000
B       -0.10512853       1.24308559      -2.15781478      -4.68818429      -0.54670902       0.14191670       0.00000000
B       -1.55883901       1.48108624      -0.36118161       6.75851656      -1.80877773      -2.71061948       0.00000000
B        0.20605971       1.67693478      -0.62066839       0.63167720      -0.90091917      -1.47629347       0.00000000
B        1.58403711       0.97305984      -1.22314740      -6.19569862       2.64694621       1.83228296       0.00000000
B        1.01556170      -0.82092652       0.86766310       0.21131849       0.15321559      -0.60106449       0.00000000
8
Lattice="3.115333549445719 -0.5964144938068316 -0.3602401192365428 0.06456159987660288 4.095363062737835 -0.6876738885750173 -0.8244774656037783 0.5317641712006284 5.446589881053844" Properties=species:S:1:pos:R:3:forces:R:3:magmoms:R:1 name=cabal-in-out pressure=0.0 energy=-43.95889299 spacegroup=n/a times_found=1 stress="-0.030322040291501928 -0.006153264079635234 -0.0005970610964990559 -0.006153264079635234 -0.013231495301320029 0.027350569831757716 -0.0005970610964990559 0.027350569831757716 -0.008378623209029915" free_energy=-43.95907215 dipole="_JSON [[0.0, 0.0, 0.0]]" magmom=0.0 pbc="T T T"
B       -0.12202450      -0.28618572       0.97065975       3.98559078      -0.11076539       2.54987058       0.00000000
B       -1.18256964      -0.17302246      -1.17016047      -0.43865100      -0.08497415      -0.47456520       0.00000000
B       -1.38995486      -1.49066906       1.46966140      -0.26456912       0.65198366       0.73847239       0.00000000
B       -1.49077240      -0.27035565       0.34049481      -4.68818429      -0.54670902       0.14191670       0.00000000
B       -0.69050609       2.00189896      -1.71273429       6.75851656      -1.80877773      -2.71061948       0.00000000
B        1.21204384       0.38833278      -2.47787268       0.63167720      -0.90091917      -1.47629347       0.00000000
B        0.89981308      -2.18025256      -0.89809963      -6.19569862       2.64694621       1.83228296       0.00000000
B       -1.60252422       1.43399364       1.99491382       0.21131849       0.15321559      -0.60106449       0.00000000
8
Lattice="4.4693826116283875 -0.04323255040627025 0.19093241400087038 -2.2596517868512813 3.4988816458161454 -0.3055666326057672 -0.9536202978351231 -0.977340330229281 4.2089174752939815" Properties=species:S:1:pos:R:3:forces:R:3:magmoms:R:1 name=cabal-in-out pressure=0.0 energy=-43.95889299 spacegroup=n/a times_found=1 stress="-0.030322040291501928 -0.006153264079635234 -0.0005970610964990559 -0.006153264079635234 -0.013231495301320029 0.027350569831757716 -0.0005970610964990559 0.027350569831757716 -0.008378623209029915" free_energy=-43.95907215 dipole="_JSON [[0.0, 0.0, 0.0]]" magmom=0.0 pbc="T T T"
B       -1.49922431       0.28576279      -1.97548405       3.98559078      -0.11076539       2.54987058       0.00000000
B        1.41319306       0.91122788       0.50920815      -0.43865100      -0.08497415      -0.47456520       0.00000000
B       -1.78389869      -0.21214972       0.62635566      -0.26456912       0.65198366       0.73847239       0.00000000
B       -0.10558331       1.24192457      -2.15728791      -4.68818429      -0.54670902       0.14191670       0.00000000
B       -1.55837392       1.48165915      -0.35976349       6.75851656      -1.80877773      -2.71061948       0.00000000
B        0.20589611       1.67649280      -0.62002763       0.63167720      -0.90091917      -1.47629347       0.00000000
B        1.58411203       0.97233941      -1.22230706      -6.19569862       2.64694621       1.83228296       0.00000000
B        1.01483893      -0.82099538       0.86675758       0.21131849       0.15321559      -0.60106449       0.00000000
8
Lattice="3.063393299201636 -0.4523437318610225 -0.19386782400086858 0.27250378997349883 3.740491522778584 -0.5466535600704348 -0.41251128553766314 0.533881412721838 6.012653774998089" Properties=species:S:1:pos:R:3:forces:R:3:magmoms:R:1 name=cabal-in-out pressure=0.0 energy=-43.95889299 spacegroup=n/a times_found=1 stress="-0.030322040291501928 -0.006153264079635234 -0.0005970610964990559 -0.006153264079635234 -0.013231495301320029 0.027350569831757716 -0.0005970610964990559 0.027350569831757716 -0.008378623209029915" free_energy=-43.95907215 dipole="_JSON [[0.0, 0.0, 0.0]]" magmom=0.0 pbc="T T T"
B       -0.13540915      -0.22337138       1.02702224       3.98559078      -0.11076539       2.54987058       0.00000000
B       -1.27619384      -0.21251704      -1.38188597      -0.43865100      -0.08497415      -0.47456520       0.00000000
B       -1.38955044      -1.39763626       1.46449424      -0.26456912       0.65198366       0.73847239       0.00000000
B       -1.42794662      -0.30043697       0.21711120      -4.68818429      -0.54670902       0.14191670       0.00000000
B       -0.72573631       1.79354383      -1.82906118       6.75851656      -1.80877773      -2.71061948       0.00000000
B        1.05870568       0.37229745      -2.62557139       0.63167720      -0.90091917      -1.47629347       0.00000000
B        0.74111980      -1.99669905      -1.05573231      -6.19569862       2.64694621       1.83228296       0.00000000
B       -1.36618746       1.27976586       2.17471897       0.21131849       0.15321559      -0.60106449       0.00000000
